VARIABLES=X,T

ZONE T="0" i=10, ZONETYPE=ORDERED,DATAPACKING=POINT
0.050000	4.6997249225
 0.150000	11.1012346254
 0.250000	16.5088395058
 0.350000	20.9263251535
 0.450000	24.3570723257
 0.550000	26.8039184320
 0.650000	28.2690412802
 0.750000	28.7538698484
 0.850000	28.2590257365
 0.950000	26.7842976989
 