VARIABLES=X,T

ZONE T="0" i=10, ZONETYPE=ORDERED,DATAPACKING=POINT
0.050000	4.7048411859
 0.150000	11.1163737932
 0.250000	16.5333812999
 0.350000	20.9592640537
 0.450000	24.3970587676
 0.550000	26.8493141011
 0.650000	28.3179862366
 0.750000	28.8043587316
 0.850000	28.3089899287
 0.950000	26.8316900797
 