VARIABLES=X,T

ZONE T="0" i=10, ZONETYPE=ORDERED,DATAPACKING=POINT
0.050000	4.7057204446
 0.150000	11.1189755445
 0.250000	16.5375989456
 0.350000	20.9649247893
 0.450000	24.4039306630
 0.550000	26.8571156027
 0.650000	28.3263977033
 0.750000	28.8130355308
 0.850000	28.3175765568
 0.950000	26.8398347275
 