VARIABLES=X,T

ZONE T="0" i=10, ZONETYPE=ORDERED,DATAPACKING=POINT
0.050000	4.7061356685
 0.150000	11.1202042039
 0.250000	16.5395907000
 0.350000	20.9675980332
 0.450000	24.4071758688
 0.550000	26.8607998087
 0.650000	28.3303699611
 0.750000	28.8171330901
 0.850000	28.3216315334
 0.950000	26.8436809819
 