VARIABLES=X,T

ZONE T="0" i=10, ZONETYPE=ORDERED,DATAPACKING=POINT
0.050000	4.7116818983
 0.150000	11.1366156544
 0.250000	16.5661949655
 0.350000	21.0033050904
 0.450000	24.4505227371
 0.550000	26.9100104910
 0.650000	28.3834282098
 0.750000	28.8718650159
 0.850000	28.3757946736
 0.950000	26.8950561780
 