VARIABLES=X,T

ZONE T="0" i=10, ZONETYPE=ORDERED,DATAPACKING=POINT
0.050000	4.7127955344
 0.150000	11.1399109352
 0.250000	16.5715368776
 0.350000	21.0104747661
 0.450000	24.4592264225
 0.550000	26.9198915808
 0.650000	28.3940818584
 0.750000	28.8828547247
 0.850000	28.3866701751
 0.950000	26.9053718838
 