VARIABLES=X,T

ZONE T="0" i=10, ZONETYPE=ORDERED,DATAPACKING=POINT
0.050000	4.7159738728
 0.150000	11.1493157283
 0.250000	16.5867827945
 0.350000	21.0309371550
 0.450000	24.4840669035
 0.550000	26.9480923960
 0.650000	28.4244875710
 0.750000	28.9142195596
 0.850000	28.4177090600
 0.950000	26.9348131014
 