VARIABLES=X,T

ZONE T="0" i=10, ZONETYPE=ORDERED,DATAPACKING=POINT
0.050000	4.7187913284
 0.150000	11.1576526590
 0.250000	16.6002976218
 0.350000	21.0490761527
 0.450000	24.5060868851
 0.550000	26.9730911644
 0.650000	28.4514408830
 0.750000	28.9420230907
 0.850000	28.4452236511
 0.950000	26.9609114314
 