VARIABLES=X,T

ZONE T="0" i=10, ZONETYPE=ORDERED,DATAPACKING=POINT
0.050000	4.7253810087
 0.150000	11.1771517091
 0.250000	16.6319071315
 0.350000	21.0915010252
 0.450000	24.5575888991
 0.550000	27.0315601923
 0.650000	28.5144813464
 0.750000	29.0070521117
 0.850000	28.5095768769
 0.950000	27.0219521979
 