VARIABLES=X,T

ZONE T="0" i=10, ZONETYPE=ORDERED,DATAPACKING=POINT
0.050000	4.7332489224
 0.150000	11.2004330883
 0.250000	16.6696480972
 0.350000	21.1421552641
 0.450000	24.6190810184
 0.550000	27.1013707524
 0.650000	28.5897500866
 0.750000	29.0846951400
 0.850000	28.5864130226
 0.950000	27.0948333498
 