VARIABLES=X,T

ZONE T="0" i=10, ZONETYPE=ORDERED,DATAPACKING=POINT
0.050000	4.7343437054
 0.150000	11.2036725820
 0.250000	16.6748995739
 0.350000	21.1492035616
 0.450000	24.6276373556
 0.550000	27.1110845613
 0.650000	28.6002233753
 0.750000	29.0954987997
 0.850000	28.5971044084
 0.950000	27.1049744169
 