VARIABLES=X,T

ZONE T="0" i=10, ZONETYPE=ORDERED,DATAPACKING=POINT
0.050000	4.7381306346
 0.150000	11.2148782123
 0.250000	16.6930647912
 0.350000	21.1735841051
 0.450000	24.6572343118
 0.550000	27.1446852911
 0.650000	28.6364511982
 0.750000	29.1328693982
 0.850000	28.6340866439
 0.950000	27.1400530625
 