VARIABLES=X,T

ZONE T="0" i=10, ZONETYPE=ORDERED,DATAPACKING=POINT
0.050000	4.7382515665
 0.150000	11.2152360535
 0.250000	16.6936448801
 0.350000	21.1743626746
 0.450000	24.6581794625
 0.550000	27.1457582985
 0.650000	28.6376080993
 0.750000	29.1340627928
 0.850000	28.6352676365
 0.950000	27.1411732657
 