VARIABLES=X,T

ZONE T="0" i=10, ZONETYPE=ORDERED,DATAPACKING=POINT
0.050000	4.7399615711
 0.150000	11.2202960054
 0.250000	16.7018474642
 0.350000	21.1853718167
 0.450000	24.6715440988
 0.550000	27.1609308565
 0.650000	28.6539669327
 0.750000	29.1509376516
 0.850000	28.6519671282
 0.950000	27.1570131831
 