VARIABLES=X,T

ZONE T="0" i=10, ZONETYPE=ORDERED,DATAPACKING=POINT
0.050000	4.7430340955
 0.150000	11.2293876918
 0.250000	16.7165858103
 0.350000	21.2051529667
 0.450000	24.6955575845
 0.550000	27.1881928032
 0.650000	28.6833603709
 0.750000	29.1812582808
 0.850000	28.6819726590
 0.950000	27.1854742365
 