VARIABLES=X,T

ZONE T="0" i=10, ZONETYPE=ORDERED,DATAPACKING=POINT
0.050000	4.7441710501
 0.150000	11.2327519727
 0.250000	16.7220395771
 0.350000	21.2124727689
 0.450000	24.7044435170
 0.550000	27.1982807939
 0.650000	28.6942370971
 0.750000	29.1924781040
 0.850000	28.6930758835
 0.950000	27.1960059437
 