VARIABLES=X,T

ZONE T="0" i=10, ZONETYPE=ORDERED,DATAPACKING=POINT
0.050000	4.7464853520
 0.150000	11.2396000572
 0.250000	16.7331408662
 0.350000	21.2273724235
 0.450000	24.7225310721
 0.550000	27.2188151707
 0.650000	28.7163769664
 0.750000	29.2153163565
 0.850000	28.7156767962
 0.950000	27.2174435175
 