VARIABLES=X,T

ZONE T="0" i=10, ZONETYPE=ORDERED,DATAPACKING=POINT
0.050000	4.7464867914
 0.150000	11.2396043165
 0.250000	16.7331477709
 0.350000	21.2273816906
 0.450000	24.7225423220
 0.550000	27.2188279425
 0.650000	28.7163907367
 0.750000	29.2153305612
 0.850000	28.7156908532
 0.950000	27.2174568510
 