VARIABLES=X,T

ZONE T="0" i=10, ZONETYPE=ORDERED,DATAPACKING=POINT
0.050000	4.7466907445
 0.150000	11.2402078194
 0.250000	16.7341260970
 0.350000	21.2286947563
 0.450000	24.7241363286
 0.550000	27.2206375808
 0.650000	28.7183418626
 0.750000	29.2173432337
 0.850000	28.7176826097
 0.950000	27.2193460856
 