VARIABLES=X,T

ZONE T="0" i=10, ZONETYPE=ORDERED,DATAPACKING=POINT
0.050000	4.7480956751
 0.150000	11.2443650489
 0.250000	16.7408652964
 0.350000	21.2377398087
 0.450000	24.7351166425
 0.550000	27.2331032735
 0.650000	28.7317821930
 0.750000	29.2312075278
 0.850000	28.7314028231
 0.950000	27.2323600773
 