VARIABLES=X,T

ZONE T="0" i=10, ZONETYPE=ORDERED,DATAPACKING=POINT
0.050000	4.7481899889
 0.150000	11.2446441259
 0.250000	16.7413177025
 0.350000	21.2383470080
 0.450000	24.7358537570
 0.550000	27.2339401023
 0.650000	28.7326844497
 0.750000	29.2321382454
 0.850000	28.7323238685
 0.950000	27.2332337136
 