VARIABLES=X,T

ZONE T="0" i=10, ZONETYPE=ORDERED,DATAPACKING=POINT
0.050000	4.7490332506
 0.150000	11.2471393613
 0.250000	16.7453626774
 0.350000	21.2437759927
 0.450000	24.7424443165
 0.550000	27.2414222098
 0.650000	28.7407515502
 0.750000	29.2404598157
 0.850000	28.7405589593
 0.950000	27.2410449188
 