VARIABLES=X,T

ZONE T="0" i=10, ZONETYPE=ORDERED,DATAPACKING=POINT
0.050000	4.7490830100
 0.150000	11.2472866008
 0.250000	16.7456013642
 0.350000	21.2440963475
 0.450000	24.7428332137
 0.550000	27.2418637157
 0.650000	28.7412275755
 0.750000	29.2409508569
 0.850000	28.7410448975
 0.950000	27.2415058443
 