VARIABLES=X,T

ZONE T="0" i=10, ZONETYPE=ORDERED,DATAPACKING=POINT
0.050000	4.7491692118
 0.150000	11.2475416744
 0.250000	16.7460148588
 0.350000	21.2446513214
 0.450000	24.7435069288
 0.550000	27.2426285686
 0.650000	28.7420522289
 0.750000	29.2418015232
 0.850000	28.7418867235
 0.950000	27.2423043389
 