VARIABLES=X,T

ZONE T="0" i=10, ZONETYPE=ORDERED,DATAPACKING=POINT
0.050000	3.4590441840
 0.150000	7.4305669410
 0.250000	10.5600754258
 0.350000	12.9452939910
 0.450000	14.6729740666
 0.550000	15.8153152391
 0.650000	16.4271056187
 0.750000	16.5436751649
 0.850000	16.1796988859
 0.950000	15.3288397350
 