VARIABLES=X,T

ZONE T="0" i=10, ZONETYPE=ORDERED,DATAPACKING=POINT
0.050000	4.7495941735
 0.150000	11.2487991479
 0.250000	16.7480533234
 0.350000	21.2473872576
 0.450000	24.7468282404
 0.550000	27.2463991757
 0.650000	28.7461176432
 0.750000	29.2459951775
 0.850000	28.7460367965
 0.950000	27.2462407948
 