VARIABLES=X,T

ZONE T="0" i=10, ZONETYPE=ORDERED,DATAPACKING=POINT
0.050000	4.7496109400
 0.150000	11.2488487606
 0.250000	16.7481337495
 0.350000	21.2474952019
 0.450000	24.7469592802
 0.550000	27.2465479422
 0.650000	28.7462780410
 0.750000	29.2461606350
 0.850000	28.7462005345
 0.950000	27.2463961047
 