VARIABLES=X,T

ZONE T="0" i=10, ZONETYPE=ORDERED,DATAPACKING=POINT
0.050000	4.7496479466
 0.150000	11.2489582641
 0.250000	16.7483112632
 0.350000	21.2477334529
 0.450000	24.7472485070
 0.550000	27.2468762946
 0.650000	28.7466320658
 0.750000	29.2465258272
 0.850000	28.7465619316
 0.950000	27.2467388996
 