VARIABLES=X,T

ZONE T="0" i=10, ZONETYPE=ORDERED,DATAPACKING=POINT
0.050000	3.5779653331
 0.150000	7.7822280037
 0.250000	11.1294327670
 0.350000	13.7081295342
 0.450000	15.5970982353
 0.550000	16.8621067777
 0.650000	17.5532729349
 0.750000	17.7031248483
 0.850000	17.3254126610
 0.950000	16.4146858763
 