VARIABLES=X,T

ZONE T="0" i=10, ZONETYPE=ORDERED,DATAPACKING=POINT
0.050000	3.6481938274
 0.150000	7.9899431615
 0.250000	11.4658672938
 0.350000	14.1591391129
 0.450000	16.1438261472
 0.550000	17.4818458259
 0.650000	18.2204682389
 0.750000	18.3904593307
 0.850000	18.0049217066
 0.950000	17.0588566105
 