VARIABLES=X,T

ZONE T="0" i=10, ZONETYPE=ORDERED,DATAPACKING=POINT
0.050000	3.8109976793
 0.150000	8.4715529587
 0.250000	12.2461874972
 0.350000	15.2056895728
 0.450000	17.4131931622
 0.550000	18.9215871986
 0.650000	19.7713644273
 0.750000	19.9889942593
 0.850000	19.5858787495
 0.950000	18.5579249149
 