VARIABLES=X,T

ZONE T="0" i=10, ZONETYPE=ORDERED,DATAPACKING=POINT
0.050000	4.0027973925
 0.150000	9.0390298454
 0.250000	13.1659144787
 0.350000	16.4397363038
 0.450000	18.9107385768
 0.550000	20.6210631593
 0.650000	21.6030281394
 0.750000	21.8778122761
 0.850000	21.4545981449
 0.950000	20.3302065204
 