VARIABLES=X,T

ZONE T="0" i=10, ZONETYPE=ORDERED,DATAPACKING=POINT
0.050000	4.0924917051
 0.150000	9.3044256214
 0.250000	13.5961041911
 0.350000	17.0170469446
 0.450000	19.6114669438
 0.550000	21.4164587760
 0.650000	22.4604807574
 0.750000	22.7621930528
 0.850000	22.3296983447
 0.950000	21.1602149339
 