VARIABLES=X,T

ZONE T="0" i=10, ZONETYPE=ORDERED,DATAPACKING=POINT
0.050000	4.0991934926
 0.150000	9.3242557560
 0.250000	13.6282484179
 0.350000	17.0601857636
 0.450000	19.6638302612
 0.550000	21.4758990474
 0.650000	22.5245614790
 0.750000	22.8282888564
 0.850000	22.3951025329
 0.950000	21.2222500562
 