VARIABLES=X,T

ZONE T="0" i=10, ZONETYPE=ORDERED,DATAPACKING=POINT
0.050000	4.1227583146
 0.150000	9.3939827025
 0.250000	13.7412750506
 0.350000	17.2118733279
 0.450000	19.8479555999
 0.550000	21.6849115237
 0.650000	22.7498939218
 0.750000	23.0607094144
 0.850000	22.6250928219
 0.950000	21.4403941302
 