VARIABLES=X,T

ZONE T="0" i=10, ZONETYPE=ORDERED,DATAPACKING=POINT
0.050000	4.2355869541
 0.150000	9.7278400000
 0.250000	14.2824661635
 0.350000	17.9382021030
 0.450000	20.7296393288
 0.550000	22.6858068020
 0.650000	23.8289820621
 0.750000	24.1737794764
 0.850000	23.7265527317
 0.950000	22.4851357488
 