VARIABLES=X,T

ZONE T="0" i=10, ZONETYPE=ORDERED,DATAPACKING=POINT
0.050000	4.3918728558
 0.150000	10.1902920027
 0.250000	15.0321301787
 0.350000	18.9443538023
 0.450000	21.9510451661
 0.550000	24.0724157274
 0.650000	25.3239780710
 0.750000	25.7159104557
 0.850000	25.2526399504
 0.950000	23.9326612031
 