VARIABLES=X,T

ZONE T="0" i=10, ZONETYPE=ORDERED,DATAPACKING=POINT
0.050000	4.4154161379
 0.150000	10.2599571293
 0.250000	15.1450625434
 0.350000	19.0959259419
 0.450000	22.1350464568
 0.550000	24.2813069506
 0.650000	25.5492003945
 0.750000	25.9482361493
 0.850000	25.4825504572
 0.950000	24.1507370764
 