VARIABLES=X,T

ZONE T="0" i=10, ZONETYPE=ORDERED,DATAPACKING=POINT
0.050000	4.4201789779
 0.150000	10.2740504894
 0.250000	15.1679089437
 0.350000	19.1265892548
 0.450000	22.1722702787
 0.550000	24.3235660962
 0.650000	25.5947634007
 0.750000	25.9952362238
 0.850000	25.5290619633
 0.950000	24.1948544206
 