VARIABLES=X,T

ZONE T="0" i=10, ZONETYPE=ORDERED,DATAPACKING=POINT
0.050000	4.4494656210
 0.150000	10.3607104060
 0.250000	15.3083912831
 0.350000	19.3151378701
 0.450000	22.4011596463
 0.550000	24.5834179288
 0.650000	25.8749309600
 0.750000	26.2842405727
 0.850000	25.8150622740
 0.950000	24.4661330697
 