VARIABLES=X,T

ZONE T="0" i=10, ZONETYPE=ORDERED,DATAPACKING=POINT
0.050000	4.4533794385
 0.150000	10.3722914935
 0.250000	15.3271651183
 0.350000	19.3403352214
 0.450000	22.4317480974
 0.550000	24.6181441876
 0.650000	25.9123722151
 0.750000	26.3228627923
 0.850000	25.8532830572
 0.950000	24.5023864761
 