VARIABLES=X,T

ZONE T="0" i=10, ZONETYPE=ORDERED,DATAPACKING=POINT
0.050000	4.4678389421
 0.150000	10.4150775444
 0.250000	15.3965246179
 0.350000	19.4334262783
 0.450000	22.5447564915
 0.550000	24.7464396724
 0.650000	26.0506982497
 0.750000	26.4655519231
 0.850000	25.9944891217
 0.950000	24.6363241161
 