VARIABLES=X,T

ZONE T="0" i=10, ZONETYPE=ORDERED,DATAPACKING=POINT
0.050000	4.5163939781
 0.150000	10.5587532105
 0.250000	15.6294341130
 0.350000	19.7460266721
 0.450000	22.9242397668
 0.550000	25.1772575471
 0.650000	26.5151992618
 0.750000	26.9447046653
 0.850000	26.4686619890
 0.950000	25.0860896184
 