VARIABLES=X,T

ZONE T="0" i=10, ZONETYPE=ORDERED,DATAPACKING=POINT
0.050000	4.6102932884
 0.150000	10.8366038949
 0.250000	16.0798520670
 0.350000	20.3505573777
 0.450000	23.6581144319
 0.550000	26.0104079523
 0.650000	27.4134897295
 0.750000	27.8713306696
 0.850000	27.3856581002
 0.950000	25.9558849992
 