VARIABLES=X,T

ZONE T="0" i=10, ZONETYPE=ORDERED,DATAPACKING=POINT
0.050000	4.6359807813
 0.150000	10.9126139110
 0.250000	16.2030703402
 0.350000	20.5159354359
 0.450000	23.8588764425
 0.550000	26.2383283413
 0.650000	27.6592301980
 0.750000	28.1248228011
 0.850000	27.6365158809
 0.950000	26.1938303508
 