VARIABLES=X,T

ZONE T="0" i=10, ZONETYPE=ORDERED,DATAPACKING=POINT
0.050000	4.6424238416
 0.150000	10.9316791086
 0.250000	16.2339765401
 0.350000	20.5574163566
 0.450000	23.9092325375
 0.550000	26.2954964329
 0.650000	27.7208680094
 0.750000	28.1884049233
 0.850000	27.6994372434
 0.950000	26.2535129558
 