VARIABLES=X,T

ZONE T="0" i=10, ZONETYPE=ORDERED,DATAPACKING=POINT
0.050000	4.6450356226
 0.150000	10.9394074421
 0.250000	16.2465047827
 0.350000	20.5742312041
 0.450000	23.9296450560
 0.550000	26.3186702857
 0.650000	27.7458537231
 0.750000	28.2141787896
 0.850000	27.7249432620
 0.950000	26.2777061007
 