VARIABLES=X,T

ZONE T="0" i=10, ZONETYPE=ORDERED,DATAPACKING=POINT
0.050000	4.6678743405
 0.150000	11.0069878534
 0.250000	16.3560579992
 0.350000	20.7212686381
 0.450000	24.1081423257
 0.550000	26.5213140451
 0.650000	27.9643413026
 0.750000	28.4395583710
 0.850000	27.9479806501
 0.950000	26.4892630644
 