VARIABLES=X,T

ZONE T="0" i=10, ZONETYPE=ORDERED,DATAPACKING=POINT
0.050000	2.5710025814
 0.150000	4.8128323389
 0.250000	6.3472531621
 0.350000	7.3475114263
 0.450000	7.9577164125
 0.550000	8.2872116137
 0.650000	8.4088220566
 0.750000	8.3600485095
 0.850000	8.1459545336
 0.950000	7.7426270178
 