VARIABLES=X,T

ZONE T="0" i=10, ZONETYPE=ORDERED,DATAPACKING=POINT
0.050000	4.6844945877
 0.150000	11.0561676345
 0.250000	16.4357823323
 0.350000	20.8282710776
 0.450000	24.2380387945
 0.550000	26.6687824574
 0.650000	28.1233396195
 0.750000	28.6035721534
 0.850000	28.1102899667
 0.950000	26.6432178188
 